 &FCI NORB=  43,NELEC=29,MS2=1,
  ORBSYM=1,1,1,1,1,1,1,1,1,1,1,1,1,1,1,1,1,1,1,1,1,1,1,1,1,1,1,1,1,1,1,1,1,1,1,1,1,1,1,1,1,1,1,
  ISYM=1,
 &END
 14.91177169257613    1    1    1    1
 -4.109291475656676    1    1    2    1
 6.546227053395452    1    1    2    2
 0.4743052879183101    1    1    3    1
 -1.019199908395844    1    1    3    2
 1.802707312859721    1    1    3    3
 -0.173698625108471    1    1    4    1
 0.2256178168014905    1    1    4    2
 -0.3472454318407816    1    1    4    3
 0.4927275102228411    1    1    4    4
 -0.08313023401920093    1    1    5    1
 0.4182115714493607    1    1    5    2
 -0.09705016413773497    1    1    5    3
 0.472745111237638    1    1    5    4
 0.6320862022319802    1    1    5    5
 0.08646987167187387    1    1    6    1
 0.1113380621888487    1    1    6    2
 0.196430014625012    1    1    6    3
 0.2634583357362863    1    1    6    4
 0.2693217223767885    1    1    6    5
 0.3038372995740343    1    1    6    6
 5.874688437284401    1    1    7    7
 5.874688437284401    1    1    8    8
 5.874688437284401    1    1    9    9
 -0.950933698741701    1    1   10    7
 1.768371262485299    1    1   10   10
 -0.950933698741701    1    1   11    8
 1.768371262485299    1    1   11   11
 -0.950933698741701    1    1   12    9
 1.768371262485299    1    1   12   12
 0.2561174250110691    1    1   13    7
 -0.2906494959577194    1    1   13   10
 0.4733732756167041    1    1   13   13
 0.2561174250110691    1    1   14    8
 -0.2906494959577194    1    1   14   11
 0.4733732756167041    1    1   14   14
 0.2561174250110691    1    1   15    9
 -0.2906494959577194    1    1   15   12
 0.4733732756167041    1    1   15   15
 0.3473213374950976    1    1   16    7
 -0.339790105312159    1    1   16   10
 0.5110737811665877    1    1   16   13
 0.5735390211031302    1    1   16   16
 0.3473213374950976    1    1   17    8
 -0.339790105312159    1    1   17   11
 0.5110737811665877    1    1   17   14
 0.5735390211031302    1    1   17   17
 0.3473213374950976    1    1   18    9
 -0.339790105312159    1    1   18   12
 0.5110737811665877    1    1   18   15
 0.5735390211031302    1    1   18   18
 0.009949145413904372    1    1   19    7
 0.05966955642553613    1    1   19   10
 0.2055970659838197    1    1   19   13
 0.1916761513907516    1    1   19   16
 0.2240551022519822    1    1   19   19
 0.009949145413904372    1    1   20    8
 0.05966955642553613    1    1   20   11
 0.2055970659838197    1    1   20   14
 0.1916761513907516    1    1   20   17
 0.2240551022519822    1    1   20   20
 0.009949145413904372    1    1   21    9
 0.05966955642553613    1    1   21   12
 0.2055970659838197    1    1   21   15
 0.1916761513907516    1    1   21   18
 0.2240551022519822    1    1   21   21
 1.479373640392891    1    1   22   22
 1.479373640392891    1    1   23   23
 1.479373640392892    1    1   24   24
 1.479373640392891    1    1   25   25
 1.479373640392892    1    1   26   26
 -1.058587377691722    1    1   27   22
 1.709588824481362    1    1   27   27
 -1.058587377691722    1    1   28   23
 1.709588824481362    1    1   28   28
 -1.058587377691721    1    1   29   24
 1.709588824481362    1    1   29   29
 -1.058587377691722    1    1   30   25
 1.709588824481362    1    1   30   30
 -1.058587377691721    1    1   31   26
 1.709588824481362    1    1   31   31
 0.180425460070743    1    1   32   22
 0.1762693694174248    1    1   32   27
 0.3711699979652981    1    1   32   32
 0.180425460070743    1    1   33   23
 0.1762693694174248    1    1   33   28
 0.3711699979652981    1    1   33   33
 0.1804254600707429    1    1   34   24
 0.1762693694174248    1    1   34   29
 0.371169997965298    1    1   34   34
 0.180425460070743    1    1   35   25
 0.1762693694174248    1    1   35   30
 0.3711699979652981    1    1   35   35
 0.1804254600707429    1    1   36   26
 0.1762693694174249    1    1   36   31
 0.371169997965298    1    1   36   36
 1.07861631998785    1    1   37   37
 1.078616319987851    1    1   38   38
 1.07861631998785    1    1   39   39
 1.07861631998785    1    1   40   40
 1.07861631998785    1    1   41   41
 1.07861631998785    1    1   42   42
 1.07861631998785    1    1   43   43
 -4.109291475656677    2    1    1    1
 1.686903114551586    2    1    2    1
 -1.042709493679267    2    1    2    2
 -0.2697150338333068    2    1    3    1
 0.2277920411843143    2    1    3    2
 -0.05937924618419623    2    1    3    3
 0.0812344059770238    2    1    4    1
 -0.06356231473394268    2    1    4    2
 0.01625580031511256    2    1    4    3
 -0.004478792188064564    2    1    4    4
 0.07742068009909445    2    1    5    1
 -0.07431085404884931    2    1    5    2
 0.0200952293393203    2    1    5    3
 -0.005457294880507359    2    1    5    4
 -0.006873502939659521    2    1    5    5
 -0.01290799309076649    2    1    6    1
 0.0003457908786386605    2    1    6    2
 0.0006640961933951499    2    1    6    3
 -0.0001247043933141422    2    1    6    4
 -0.0003130036947524395    2    1    6    5
 -0.0001185047631568774    2    1    6    6
 -0.5630493130289814    2    1    7    7
 -0.5630493130289814    2    1    8    8
 -0.5630493130289814    2    1    9    9
 0.1728042340965242    2    1   10    7
 -0.05648551378970314    2    1   10   10
 0.1728042340965242    2    1   11    8
 -0.05648551378970314    2    1   11   11
 0.1728042340965242    2    1   12    9
 -0.05648551378970314    2    1   12   12
 -0.04839563923268422    2    1   13    7
 0.01589292269700138    2    1   13   10
 -0.004472368298949168    2    1   13   13
 -0.04839563923268422    2    1   14    8
 0.01589292269700138    2    1   14   11
 -0.004472368298949168    2    1   14   14
 -0.04839563923268422    2    1   15    9
 0.01589292269700138    2    1   15   12
 -0.004472368298949168    2    1   15   15
 -0.06477001971556463    2    1   16    7
 0.02126521689418566    2    1   16   10
 -0.00598439201854861    2    1   16   13
 -0.008007525347757383    2    1   16   16
 -0.06477001971556463    2    1   17    8
 0.02126521689418566    2    1   17   11
 -0.00598439201854861    2    1   17   14
 -0.008007525347757383    2    1   17   17
 -0.06477001971556463    2    1   18    9
 0.02126521689418566    2    1   18   12
 -0.00598439201854861    2    1   18   15
 -0.008007525347757383    2    1   18   18
 -0.0002638653042729114    2    1   19    7
 5.731427076937984e-05    2    1   19   10
 -1.509222300046264e-05    2    1   19   13
 -2.043468589854863e-05    2    1   19   16
 2.048095881479357e-07    2    1   19   19
 -0.0002638653042729114    2    1   20    8
 5.731427076937984e-05    2    1   20   11
 -1.509222300046264e-05    2    1   20   14
 -2.043468589854863e-05    2    1   20   17
 2.048095881479357e-07    2    1   20   20
 -0.0002638653042729114    2    1   21    9
 5.731427076937984e-05    2    1   21   12
 -1.509222300046264e-05    2    1   21   15
 -2.043468589854863e-05    2    1   21   18
 2.048095881479357e-07    2    1   21   21
 -0.006513945701870198    2    1   22   22
 -0.006513945701870152    2    1   23   23
 -0.006513945701870218    2    1   24   24
 -0.006513945701870152    2    1   25   25
 -0.006513945701870215    2    1   26   26
 0.00994459607406554    2    1   27   22
 -0.0152155749643813    2    1   27   27
 0.009944596074065516    2    1   28   23
 -0.01521557496438125    2    1   28   28
 0.009944596074065533    2    1   29   24
 -0.01521557496438137    2    1   29   29
 0.009944596074065516    2    1   30   25
 -0.01521557496438125    2    1   30   30
 0.009944596074065544    2    1   31   26
 -0.01521557496438132    2    1   31   31
 -2.296469165416586e-05    2    1   32   22
 3.472180828648791e-05    2    1   32   27
 6.955683264478996e-07    2    1   32   32
 -2.29646916541742e-05    2    1   33   23
 3.472180828647232e-05    2    1   33   28
 6.955683264644811e-07    2    1   33   33
 -2.296469165415942e-05    2    1   34   24
 3.472180828648793e-05    2    1   34   29
 6.955683264518303e-07    2    1   34   34
 -2.29646916541742e-05    2    1   35   25
 3.472180828647232e-05    2    1   35   30
 6.955683264644811e-07    2    1   35   35
 -2.2964691654164e-05    2    1   36   26
 3.472180828647625e-05    2    1   36   31
 6.955683264794271e-07    2    1   36   36
 -0.0002440536778890849    2    1   37   37
 -0.0002440536778890742    2    1   38   38
 -0.0002440536778891054    2    1   39   39
 -0.0002440536778890379    2    1   40   40
 -0.0002440536778891054    2    1   41   41
 -0.0002440536778890783    2    1   42   42
 -0.0002440536778890849    2    1   43   43
 6.546227053395453    2    2    1    1
 -1.042709493679268    2    2    2    1
 4.290896792001454    2    2    2    2
 0.05628266292769143    2    2    3    1
 -0.5000715586082399    2    2    3    2
 1.653405588530615    2    2    3    3
 -0.04268591111018923    2    2    4    1
 0.08398608637045847    2    2    4    2
 -0.3071631686933966    2    2    4    3
 0.4818740949113622    2    2    4    4
 0.0270405780954728    2    2    5    1
 0.2445814900639112    2    2    5    2
 -0.0453189396202338    2    2    5    3
 0.4589790853567746    2    2    5    4
 0.6139608261637041    2    2    5    5
 0.05531813689515835    2    2    6    1
 0.1062079035385392    2    2    6    2
 0.1996407484242056    2    2    6    3
 0.2627659920541757    2    2    6    4
 0.2679624563423422    2    2    6    5
 0.3034442219478258    2    2    6    6
 4.208481453665771    2    2    7    7
 4.208481453665771    2    2    8    8
 4.208481453665771    2    2    9    9
 -0.4593193326934945    2    2   10    7
 1.609965135563177    2    2   10   10
 -0.4593193326934945    2    2   11    8
 1.609965135563177    2    2   11   11
 -0.4593193326934945    2    2   12    9
 1.609965135563177    2    2   12   12
 0.1189485194351639    2    2   13    7
 -0.2461632320283662    2    2   13   10
 0.4608732289339211    2    2   13   13
 0.1189485194351639    2    2   14    8
 -0.2461632320283662    2    2   14   11
 0.4608732289339211    2    2   14   14
 0.1189485194351639    2    2   15    9
 -0.2461632320283662    2    2   15   12
 0.4608732289339211    2    2   15   15
 0.163729828836989    2    2   16    7
 -0.2802694988127513    2    2   16   10
 0.4943493471273451    2    2   16   13
 0.551162391858866    2    2   16   16
 0.163729828836989    2    2   17    8
 -0.2802694988127513    2    2   17   11
 0.4943493471273451    2    2   17   14
 0.551162391858866    2    2   17   17
 0.163729828836989    2    2   18    9
 -0.2802694988127513    2    2   18   12
 0.4943493471273451    2    2   18   15
 0.551162391858866    2    2   18   18
 0.009044752729061689    2    2   19    7
 0.05984329105404683    2    2   19   10
 0.2055504351293308    2    2   19   13
 0.1916135283248773    2    2   19   16
 0.2240539336043069    2    2   19   19
 0.009044752729061689    2    2   20    8
 0.05984329105404683    2    2   20   11
 0.2055504351293308    2    2   20   14
 0.1916135283248773    2    2   20   17
 0.2240539336043069    2    2   20   20
 0.009044752729061689    2    2   21    9
 0.05984329105404683    2    2   21   12
 0.2055504351293308    2    2   21   15
 0.1916135283248773    2    2   21   18
 0.2240539336043069    2    2   21   21
 1.454320854142998    2    2   22   22
 1.454320854142997    2    2   23   23
 1.454320854142997    2    2   24   24
 1.454320854142997    2    2   25   25
 1.454320854142997    2    2   26   26
 -1.020499485634617    2    2   27   22
 1.651531112318426    2    2   27   27
 -1.020499485634617    2    2   28   23
 1.651531112318426    2    2   28   28
 -1.020499485634617    2    2   29   24
 1.651531112318425    2    2   29   29
 -1.020499485634617    2    2   30   25
 1.651531112318426    2    2   30   30
 -1.020499485634618    2    2   31   26
 1.651531112318426    2    2   31   31
 0.180330604241374    2    2   32   22
 0.1764081890647988    2    2   32   27
 0.3711694434751865    2    2   32   32
 0.180330604241374    2    2   33   23
 0.1764081890647988    2    2   33   28
 0.3711694434751865    2    2   33   33
 0.1803306042413739    2    2   34   24
 0.1764081890647985    2    2   34   29
 0.3711694434751864    2    2   34   34
 0.180330604241374    2    2   35   25
 0.1764081890647988    2    2   35   30
 0.3711694434751865    2    2   35   35
 0.1803306042413739    2    2   36   26
 0.1764081890647987    2    2   36   31
 0.3711694434751865    2    2   36   36
 1.077573151689779    2    2   37   37
 1.07757315168978    2    2   38   38
 1.077573151689779    2    2   39   39
 1.077573151689779    2    2   40   40
 1.077573151689779    2    2   41   41
 1.07757315168978    2    2   42   42
 1.077573151689779    2    2   43   43
 0.4743052879183106    3    1    1    1
 -0.2697150338333069    3    1    2    1
 0.05628266292769146    3    1    2    2
 0.05550248849714171    3    1    3    1
 -0.009868240522329078    3    1    3    2
 -0.002760192937277215    3    1    3    3
 -0.01562003984449305    3    1    4    1
 0.003998644269382675    3    1    4    2
 0.00062600459732583    3    1    4    3
 -0.0001737255590750249    3    1    4    4
 -0.01785119141226139    3    1    5    1
 0.00177217779816559    3    1    5    2
 0.0009638273662195631    3    1    5    3
 -0.0002251272436818362    3    1    5    4
 -0.0004105863287179204    3    1    5    5
 0.0003736234761343454    3    1    6    1
 -0.002181716173277491    3    1    6    2
 0.0001813099920752412    3    1    6    3
 -3.239561593913711e-05    3    1    6    4
 -0.0001180418172330494    3    1    6    5
 -7.287569564741671e-05    3    1    6    6
 -0.05995887249406612    3    1    7    7
 -0.05995887249406612    3    1    8    8
 -0.05995887249406612    3    1    9    9
 0.006415893793443705    3    1   10    7
 -0.004285543784300767    3    1   10   10
 0.006415893793443705    3    1   11    8
 -0.004285543784300767    3    1   11   11
 0.006415893793443705    3    1   12    9
 -0.004285543784300767    3    1   12   12
 -0.001531984041050996    3    1   13    7
 0.001172492641711038    3    1   13   10
 -0.000342611369796675    3    1   13   13
 -0.001531984041050996    3    1   14    8
 0.001172492641711038    3    1   14   11
 -0.000342611369796675    3    1   14   14
 -0.001531984041050996    3    1   15    9
 0.001172492641711038    3    1   15   12
 -0.000342611369796675    3    1   15   15
 -0.002065551324087622    3    1   16    7
 0.001539540119339912    3    1   16   10
 -0.0004460667842387371    3    1   16   13
 -0.0005831688190297038    3    1   16   16
 -0.002065551324087622    3    1   17    8
 0.001539540119339912    3    1   17   11
 -0.0004460667842387371    3    1   17   14
 -0.0005831688190297038    3    1   17   17
 -0.002065551324087622    3    1   18    9
 0.001539540119339912    3    1   18   12
 -0.0004460667842387371    3    1   18   15
 -0.0005831688190297038    3    1   18   18
 -0.0001091059137806418    3    1   19    7
 -2.626988237096289e-05    3    1   19   10
 -1.918572320607785e-06    3    1   19   13
 5.905660993866179e-07    3    1   19   16
 -1.026185354838802e-05    3    1   19   19
 -0.0001091059137806418    3    1   20    8
 -2.626988237096289e-05    3    1   20   11
 -1.918572320607785e-06    3    1   20   14
 5.905660993866179e-07    3    1   20   17
 -1.026185354838802e-05    3    1   20   20
 -0.0001091059137806418    3    1   21    9
 -2.626988237096289e-05    3    1   21   12
 -1.918572320607785e-06    3    1   21   15
 5.905660993866179e-07    3    1   21   18
 -1.026185354838802e-05    3    1   21   21
 -0.006389191920518787    3    1   22   22
 -0.006389191920518799    3    1   23   23
 -0.006389191920518773    3    1   24   24
 -0.006389191920518799    3    1   25   25
 -0.006389191920518795    3    1   26   26
 0.009000956753038688    3    1   27   22
 -0.01290735549043466    3    1   27   27
 0.009000956753038709    3    1   28   23
 -0.01290735549043469    3    1   28   28
 0.009000956753038693    3    1   29   24
 -0.01290735549043464    3    1   29   29
 0.009000956753038709    3    1   30   25
 -0.01290735549043469    3    1   30   30
 0.009000956753038731    3    1   31   26
 -0.01290735549043469    3    1   31   31
 -5.633015769379267e-05    3    1   32   22
 5.439926533556125e-05    3    1   32   27
 -1.668414021231973e-05    3    1   32   32
 -5.633015769379336e-05    3    1   33   23
 5.439926533556464e-05    3    1   33   28
 -1.668414021232543e-05    3    1   33   33
 -5.633015769379219e-05    3    1   34   24
 5.439926533556615e-05    3    1   34   29
 -1.668414021231008e-05    3    1   34   34
 -5.633015769379336e-05    3    1   35   25
 5.439926533556464e-05    3    1   35   30
 -1.668414021232543e-05    3    1   35   35
 -5.633015769379472e-05    3    1   36   26
 5.439926533556461e-05    3    1   36   31
 -1.668414021231144e-05    3    1   36   36
 -0.0009518337384337537    3    1   37   37
 -0.0009518337384337752    3    1   38   38
 -0.0009518337384337465    3    1   39   39
 -0.0009518337384337966    3    1   40   40
 -0.0009518337384337465    3    1   41   41
 -0.0009518337384337612    3    1   42   42
 -0.0009518337384337537    3    1   43   43
 -1.019199908395845    3    2    1    1
 0.2277920411843143    3    2    2    1
 -0.50007155860824    3    2    2    2
 -0.009868240522329024    3    2    3    1
 0.1098323609315007    3    2    3    2
 -0.04677562921745609    3    2    3    3
 0.005870069209363339    3    2    4    1
 -0.02626317449281191    3    2    4    2
 0.01254550362713349    3    2    4    3
 -0.003499615458151476    3    2    4    4
 -0.001862834414083332    3    2    5    1
 -0.04070059147900965    3    2    5    2
 0.01557921397963144    3    2    5    3
 -0.004132121577265757    3    2    5    4
 -0.005468682956465949    3    2    5    5
 -0.006285748811573336    3    2    6    1
 -0.007332813102149399    3    2    6    2
 0.0006411953785998591    3    2    6    3
 -5.018545579339956e-05    3    2    6    4
 -0.0004677960422301344    3    2    6    5
 -0.0003309924270305378    3    2    6    6
 -0.4974143181107559    3    2    7    7
 -0.4974143181107559    3    2    8    8
 -0.4974143181107559    3    2    9    9
 0.1058636293613784    3    2   10    7
 -0.04503487778230582    3    2   10   10
 0.1058636293613784    3    2   11    8
 -0.04503487778230582    3    2   11   11
 0.1058636293613784    3    2   12    9
 -0.04503487778230582    3    2   12   12
 -0.02864050692129097    3    2   13    7
 0.0125813903299464    3    2   13   10
 -0.003569655250996772    3    2   13   13
 -0.02864050692129097    3    2   14    8
 0.0125813903299464    3    2   14   11
 -0.003569655250996772    3    2   14   14
 -0.02864050692129097    3    2   15    9
 0.0125813903299464    3    2   15   12
 -0.003569655250996772    3    2   15   15
 -0.0383937558683087    3    2   16    7
 0.01671349248030594    3    2   16   10
 -0.004733690036676872    3    2   16   13
 -0.00628427760639603    3    2   16   16
 -0.0383937558683087    3    2   17    8
 0.01671349248030594    3    2   17   11
 -0.004733690036676872    3    2   17   14
 -0.00628427760639603    3    2   17   17
 -0.0383937558683087    3    2   18    9
 0.01671349248030594    3    2   18   12
 -0.004733690036676872    3    2   18   15
 -0.00628427760639603    3    2   18   18
 -0.0005526318157296852    3    2   19    7
 -8.792130490165572e-05    3    2   19   10
 4.522646309868012e-06    3    2   19   13
 1.241750600690344e-05    3    2   19   16
 -2.461148573264946e-05    3    2   19   19
 -0.0005526318157296852    3    2   20    8
 -8.792130490165572e-05    3    2   20   11
 4.522646309868012e-06    3    2   20   14
 1.241750600690344e-05    3    2   20   17
 -2.461148573264946e-05    3    2   20   20
 -0.0005526318157296852    3    2   21    9
 -8.792130490165572e-05    3    2   21   12
 4.522646309868012e-06    3    2   21   15
 1.241750600690344e-05    3    2   21   18
 -2.461148573264946e-05    3    2   21   21
 -0.02912567138091663    3    2   22   22
 -0.02912567138091669    3    2   23   23
 -0.0291256713809166    3    2   24   24
 -0.02912567138091669    3    2   25   25
 -0.02912567138091668    3    2   26   26
 0.04131997266489031    3    2   27   22
 -0.05945017644204922    3    2   27   27
 0.04131997266489034    3    2   28   23
 -0.05945017644204937    3    2   28   28
 0.04131997266489033    3    2   29   24
 -0.05945017644204925    3    2   29   29
 0.04131997266489034    3    2   30   25
 -0.05945017644204937    3    2   30   30
 0.04131997266489043    3    2   31   26
 -0.05945017644204945    3    2   31   31
 -0.0002319934727040924    3    2   32   22
 0.000260045068396289    3    2   32   27
 -3.912128522176751e-05    3    2   32   32
 -0.000231993472704094    3    2   33   23
 0.0002600450683962992    3    2   33   28
 -3.912128522177581e-05    3    2   33   33
 -0.0002319934727041006    3    2   34   24
 0.000260045068396283    3    2   34   29
 -3.912128522178471e-05    3    2   34   34
 -0.000231993472704094    3    2   35   25
 0.0002600450683962992    3    2   35   30
 -3.912128522177581e-05    3    2   35   35
 -0.000231993472704104    3    2   36   26
 0.0002600450683962871    3    2   36   31
 -3.912128522179546e-05    3    2   36   36
 -0.004081513773592659    3    2   37   37
 -0.004081513773592708    3    2   38   38
 -0.004081513773592655    3    2   39   39
 -0.004081513773592671    3    2   40   40
 -0.004081513773592655    3    2   41   41
 -0.004081513773592707    3    2   42   42
 -0.004081513773592659    3    2   43   43
 1.802707312859722    3    3    1    1
 -0.059379246184196    3    3    2    1
 1.653405588530615    3    3    2    2
 -0.002760192937277384    3    3    3    1
 -0.04677562921745611    3    3    3    2
 1.249337223901736    3    3    3    3
 -0.009730520228522584    3    3    4    1
 -0.01351821800461177    3    3    4    2
 -0.1969155413775659    3    3    4    3
 0.4502628967644058    3    3    4    4
 0.02020133674106706    3    3    5    1
 0.06285379227454853    3    3    5    2
 0.05780463378666679    3    3    5    3
 0.4296612545499786    3    3    5    4
 0.5796693820002943    3    3    5    5
 0.02250752119123765    3    3    6    1
 0.05631730291743015    3    3    6    2
 0.1839333298513902    3    3    6    3
 0.2677162490325344    3    3    6    4
 0.2679344899230003    3    3    6    5
 0.2995771956304273    3    3    6    6
 1.660636747126974    3    3    7    7
 1.660636747126974    3    3    8    8
 1.660636747126974    3    3    9    9
 -0.04440236472295872    3    3   10    7
 1.222784509235544    3    3   10   10
 -0.04440236472295872    3    3   11    8
 1.222784509235544    3    3   11   11
 -0.04440236472295872    3    3   12    9
 1.222784509235544    3    3   12   12
 0.009044738985283227    3    3   13    7
 -0.1432302140939172    3    3   13   10
 0.4325841343636802    3    3   13   13
 0.009044738985283227    3    3   14    8
 -0.1432302140939172    3    3   14   11
 0.4325841343636802    3    3   14   14
 0.009044738985283227    3    3   15    9
 -0.1432302140939172    3    3   15   12
 0.4325841343636802    3    3   15   15
 0.01556082861723333    3    3   16    7
 -0.1472471500434393    3    3   16   10
 0.4574780748232052    3    3   16   13
 0.5029638967373817    3    3   16   16
 0.01556082861723333    3    3   17    8
 -0.1472471500434393    3    3   17   11
 0.4574780748232052    3    3   17   14
 0.5029638967373817    3    3   17   17
 0.01556082861723333    3    3   18    9
 -0.1472471500434393    3    3   18   12
 0.4574780748232052    3    3   18   15
 0.5029638967373817    3    3   18   18
 0.005074055784583732    3    3   19    7
 0.05628940286465187    3    3   19   10
 0.2063185880364339    3    3   19   13
 0.1925252525043932    3    3   19   16
 0.223957860508054    3    3   19   19
 0.005074055784583732    3    3   20    8
 0.05628940286465187    3    3   20   11
 0.2063185880364339    3    3   20   14
 0.1925252525043932    3    3   20   17
 0.223957860508054    3    3   20   20
 0.005074055784583732    3    3   21    9
 0.05628940286465187    3    3   21   12
 0.2063185880364339    3    3   21   15
 0.1925252525043932    3    3   21   18
 0.223957860508054    3    3   21   21
 1.135347707066027    3    3   22   22
 1.135347707066027    3    3   23   23
 1.135347707066027    3    3   24   24
 1.135347707066027    3    3   25   25
 1.135347707066027    3    3   26   26
 -0.6195678701634604    3    3   27   22
 1.117316092940586    3    3   27   27
 -0.6195678701634604    3    3   28   23
 1.117316092940586    3    3   28   28
 -0.61956787016346    3    3   29   24
 1.117316092940586    3    3   29   29
 -0.6195678701634604    3    3   30   25
 1.117316092940586    3    3   30   30
 -0.6195678701634602    3    3   31   26
 1.117316092940586    3    3   31   31
 0.1751192217200664    3    3   32   22
 0.180838454797172    3    3   32   27
 0.3708925458843788    3    3   32   32
 0.1751192217200664    3    3   33   23
 0.180838454797172    3    3   33   28
 0.3708925458843788    3    3   33   33
 0.1751192217200664    3    3   34   24
 0.180838454797172    3    3   34   29
 0.3708925458843786    3    3   34   34
 0.1751192217200664    3    3   35   25
 0.180838454797172    3    3   35   30
 0.3708925458843788    3    3   35   35
 0.1751192217200664    3    3   36   26
 0.1808384547971721    3    3   36   31
 0.3708925458843788    3    3   36   36
 0.9773087646497253    3    3   37   37
 0.9773087646497254    3    3   38   38
 0.9773087646497254    3    3   39   39
 0.9773087646497254    3    3   40   40
 0.9773087646497254    3    3   41   41
 0.9773087646497255    3    3   42   42
 0.9773087646497253    3    3   43   43
 -0.1736986251084712    4    1    1    1
 0.08123440597702378    4    1    2    1
 -0.04268591111018923    4    1    2    2
 -0.01562003984449305    4    1    3    1
 0.005870069209363329    4    1    3    2
 -0.009730520228522581    4    1    3    3
 0.004569415423702062    4    1    4    1
 -0.00163132780788213    4    1    4    2
 0.00178985682069202    4    1    4    3
 -0.002981659958297841    4    1    4    4
 0.00472908458498463    4    1    5    1
 -0.002030858161018554    4    1    5    2
 4.793473086146849e-05    4    1    5    3
 -0.002821694479691398    4    1    5    4
 -0.003740736523983545    4    1    5    5
 -0.0004619142614206701    4    1    6    1
 -6.854109716645528e-05    4    1    6    2
 -0.001310088533378428    4    1    6    3
 -0.001634138778897617    4    1    6    4
 -0.001644548068137844    4    1    6    5
 -0.001881653554931102    4    1    6    6
 -0.01052378211394281    4    1    7    7
 -0.01052378211394281    4    1    8    8
 -0.01052378211394281    4    1    9    9
 0.001290392701568611    4    1   10    7
 -0.0090792970520834    4    1   10   10
 0.001290392701568611    4    1   11    8
 -0.0090792970520834    4    1   11   11
 0.001290392701568611    4    1   12    9
 -0.0090792970520834    4    1   12   12
 -0.0003741362847170131    4    1   13    7
 0.001266052355270961    4    1   13   10
 -0.002805275360877742    4    1   13   13
 -0.0003741362847170131    4    1   14    8
 0.001266052355270961    4    1   14   11
 -0.002805275360877742    4    1   14   14
 -0.0003741362847170131    4    1   15    9
 0.001266052355270961    4    1   15   12
 -0.002805275360877742    4    1   15   15
 -0.0005253994797430592    4    1   16    7
 0.001392422405840555    4    1   16   10
 -0.002990329727304192    4    1   16   13
 -0.003313489881591219    4    1   16   16
 -0.0005253994797430592    4    1   17    8
 0.001392422405840555    4    1   17   11
 -0.002990329727304192    4    1   17   14
 -0.003313489881591219    4    1   17   17
 -0.0005253994797430592    4    1   18    9
 0.001392422405840555    4    1   18   12
 -0.002990329727304192    4    1   18   15
 -0.003313489881591219    4    1   18   18
 -2.729624579251837e-05    4    1   19    7
 -0.0003691501928278591    4    1   19   10
 -0.001286555499208311    4    1   19   13
 -0.001199888200915189    4    1   19   16
 -0.001400409700238867    4    1   19   19
 -2.729624579251837e-05    4    1   20    8
 -0.0003691501928278591    4    1   20   11
 -0.001286555499208311    4    1   20   14
 -0.001199888200915189    4    1   20   17
 -0.001400409700238867    4    1   20   20
 -2.729624579251837e-05    4    1   21    9
 -0.0003691501928278591    4    1   21   12
 -0.001286555499208311    4    1   21   15
 -0.001199888200915189    4    1   21   18
 -0.001400409700238867    4    1   21   21
 -0.00743821221360837    4    1   22   22
 -0.00743821221360837    4    1   23   23
 -0.007438212213608365    4    1   24   24
 -0.00743821221360837    4    1   25   25
 -0.007438212213608371    4    1   26   26
 0.004012095393450054    4    1   27   22
 -0.006905969462045553    4    1   27   27
 0.004012095393450055    4    1   28   23
 -0.006905969462045552    4    1   28   28
 0.004012095393450047    4    1   29   24
 -0.006905969462045547    4    1   29   29
 0.004012095393450055    4    1   30   25
 -0.006905969462045552    4    1   30   30
 0.004012095393450047    4    1   31   26
 -0.006905969462045546    4    1   31   31
 -0.001115931091542875    4    1   32   22
 -0.001118229835980928    4    1   32   27
 -0.002320393719190849    4    1   32   32
 -0.001115931091542876    4    1   33   23
 -0.001118229835980931    4    1   33   28
 -0.002320393719190845    4    1   33   33
 -0.001115931091542875    4    1   34   24
 -0.00111822983598093    4    1   34   29
 -0.002320393719190844    4    1   34   34
 -0.001115931091542876    4    1   35   25
 -0.001118229835980931    4    1   35   30
 -0.002320393719190845    4    1   35   35
 -0.001115931091542874    4    1   36   26
 -0.001118229835980929    4    1   36   31
 -0.002320393719190843    4    1   36   36
 -0.00653028773573158    4    1   37   37
 -0.006530287735731576    4    1   38   38
 -0.006530287735731586    4    1   39   39
 -0.006530287735731564    4    1   40   40
 -0.006530287735731586    4    1   41   41