 &FCI NORB=  14,NELEC= 6,MS2=2,
  ORBSYM=1,1,1,1,1,1,1,1,1,1,1,1,1,1,
  ISYM=1,
 &END
 3.506427295492744    1    1    1    1
 -1.168331691980249    1    1    2    1
 1.296145357722434    1    1    2    2
 0.4301587150503535    1    1    3    1
 0.4787122993984937    1    1    3    2
 0.6310508814761885    1    1    3    3
 1.021207104531527    1    1    4    4
 1.021207104531527    1    1    5    5
 1.021207104531527    1    1    6    6
 0.3632715881468525    1    1    7    4
 0.4142647318347289    1    1    7    7
 0.3632715881468525    1    1    8    5
 0.4142647318347289    1    1    8    8
 0.3632715881468525    1    1    9    6
 0.4142647318347289    1    1    9    9
 0.6310154413761432    1    1   10   10
 0.6310154413761432    1    1   11   11
 0.6310154413761431    1    1   12   12
 0.6310154413761432    1    1   13   13
 0.6310154413761433    1    1   14   14
 -1.168331691980249    2    1    1    1
 0.4182840952890116    2    1    2    1
 -0.3565923704374924    2    1    2    2
 -0.1269180547130169    2    1    3    1
 -0.09493061581373291    2    1    3    2
 -0.1420206530136797    2    1    3    3
 -0.2403467008916695    2    1    4    4
 -0.2403467008916695    2    1    5    5
 -0.2403467008916695    2    1    6    6
 -0.08065138182290327    2    1    7    4
 -0.08970544651089545    2    1    7    7
 -0.08065138182290327    2    1    8    5
 -0.08970544651089545    2    1    8    8
 -0.08065138182290327    2    1    9    6
 -0.08970544651089545    2    1    9    9
 -0.1373126494330656    2    1   10   10
 -0.1373126494330656    2    1   11   11
 -0.1373126494330656    2    1   12   12
 -0.1373126494330656    2    1   13   13
 -0.1373126494330656    2    1   14   14
 1.296145357722434    2    2    1    1
 -0.3565923704374925    2    2    2    1
 0.8193422550130853    2    2    2    2
 0.2012293328376996    2    2    3    1
 0.4643761753291514    2    2    3    2
 0.5517307529835606    2    2    3    3
 0.7645295766909883    2    2    4    4
 0.7645295766909883    2    2    5    5
 0.7645295766909883    2    2    6    6
 0.3214969882772531    2    2    7    4
 0.4044865291204869    2    2    7    7
 0.3214969882772531    2    2    8    5
 0.4044865291204869    2    2    8    8
 0.3214969882772531    2    2    9    6
 0.4044865291204869    2    2    9    9
 0.5912751768628476    2    2   10   10
 0.5912751768628476    2    2   11   11
 0.5912751768628476    2    2   12   12
 0.5912751768628476    2    2   13   13
 0.5912751768628477    2    2   14   14
 0.4301587150503535    3    1    1    1
 -0.1269180547130169    3    1    2    1
 0.2012293328376996    3    1    2    2
 0.06211226619390635    3    1    3    1
 0.09512029642820892    3    1    3    2
 0.1161566272600121    3    1    3    3
 0.1815339909722654    3    1    4    4
 0.1815339909722654    3    1    5    5
 0.1815339909722654    3    1    6    6
 0.06745096009229415    3    1    7    4
 0.07845205080520186    3    1    7    7
 0.06745096009229415    3    1    8    5
 0.07845205080520186    3    1    8    8
 0.06745096009229415    3    1    9    6
 0.07845205080520186    3    1    9    9
 0.1188369498362238    3    1   10   10
 0.1188369498362238    3    1   11   11
 0.1188369498362237    3    1   12   12
 0.1188369498362238    3    1   13   13
 0.1188369498362238    3    1   14   14
 0.4787122993984937    3    2    1    1
 -0.09493061581373294    3    2    2    1
 0.4643761753291514    3    2    2    2
 0.09512029642820895    3    2    3    1
 0.3117040700720275    3    2    3    2
 0.3659971139717496    3    2    3    3
 0.4686995514866537    3    2    4    4
 0.4686995514866537    3    2    5    5
 0.4686995514866537    3    2    6    6
 0.2125635945252027    3    2    7    4
 0.2835999689440651    3    2    7    7
 0.2125635945252027    3    2    8    5
 0.2835999689440651    3    2    8    8
 0.2125635945252027    3    2    9    6
 0.2835999689440651    3    2    9    9
 0.3987383504881289    3    2   10   10
 0.3987383504881289    3    2   11   11
 0.398738350488129    3    2   12   12
 0.3987383504881289    3    2   13   13
 0.3987383504881291    3    2   14   14
 0.6310508814761885    3    3    1    1
 -0.1420206530136797    3    3    2    1
 0.5517307529835606    3    3    2    2
 0.1161566272600121    3    3    3    1
 0.3659971139717496    3    3    3    2
 0.4507871241947047    3    3    3    3
 0.5472590306161147    3    3    4    4
 0.5472590306161147    3    3    5    5
 0.5472590306161147    3    3    6    6
 0.256843028331716    3    3    7    4
 0.3689764215072509    3    3    7    7
 0.256843028331716    3    3    8    5
 0.3689764215072509    3    3    8    8
 0.256843028331716    3    3    9    6
 0.3689764215072509    3    3    9    9
 0.4827777348298171    3    3   10   10
 0.4827777348298171    3    3   11   11
 0.482777734829817    3    3   12   12
 0.4827777348298171    3    3   13   13
 0.4827777348298172    3    3   14   14
 0.04139997967652358    4    1    4    1
 0.0345043766204871    4    1    4    2
 0.03579360454056379    4    1    4    3
 0.00444308575526428    4    1    7    1
 0.01392739685163934    4    1    7    2
 0.01553515588892967    4    1    7    3
 0.02313501587544095    4    1   10    5
 0.01159944354633081    4    1   10    8
 -0.0133570076433921    4    1   12    4
 -0.006696941853923962    4    1   12    7
 0.02313501587544094    4    1   13    6
 0.01159944354633081    4    1   13    9
 0.02313501587544094    4    1   14    4
 0.01159944354633082    4    1   14    7
 0.03450437662048711    4    2    4    1
 0.1308155577771058    4    2    4    2
 0.107186536861975    4    2    4    3
 0.005814050268906673    4    2    7    1
 0.05937209821149678    4    2    7    2
 0.07271455111467801    4    2    7    3
 0.08682308363371198    4    2   10    5
 0.05633316319428551    4    2   10    8
 -0.05012733070779696    4    2   12    4
 -0.03252396693452386    4    2   12    7
 0.08682308363371198    4    2   13    6
 0.0563331631942855    4    2   13    9
 0.08682308363371194    4    2   14    4
 0.0563331631942855    4    2   14    7
 0.03579360454056379    4    3    4    1
 0.107186536861975    4    3    4    2
 0.09306689032295654    4    3    4    3
 0.005361011230660176    4    3    7    1
 0.0518579507911862    4    3    7    2
 0.06829304569642654    4    3    7    3
 0.07487942152612952    4    3   10    5
 0.05175408410498666    4    3   10    8
 -0.04323165417487432    4    3   12    4
 -0.02988023438967658    4    3   12    7
 0.07487942152612952    4    3   13    6
 0.05175408410498665    4    3   13    9
 0.0748794215261295    4    3   14    4
 0.05175408410498665    4    3   14    7
 1.021207104531527    4    4    1    1
 -0.2403467008916696    4    4    2    1
 0.7645295766909883    4    4    2    2
 0.1815339909722654    4    4    3    1
 0.4686995514866539    4    4    3    2
 0.5472590306161149    4    4    3    3
 0.8133768355269101    4    4    4    4
 0.7252830047251708    4    4    5    5
 0.7252830047251708    4    4    6    6
 0.3426139905320479    4    4    7    4
 0.4232982930537973    4    4    7    7
 0.3075667612099357    4    4    8    5
 0.393416248458987    4    4    8    8
 0.3075667612099357    4    4    9    6
 0.393416248458987    4    4    9    9
 0.602974574203584    4    4   10   10
 0.5562550514283156    4    4   11   11
 -0.002682156148906989    4    4   12    1
 -0.02385454415243304    4    4   12    2
 -0.02136869260142127    4    4   12    3
 0.5718282256867382    4    4   12   12
 0.6029745742035839    4    4   13   13
 0.004645630723740191    4    4   14    1
 0.04131728246340904    4    4   14    2
 0.03701166127698274    4    4   14    3
 -0.02697352905071207    4    4   14   12
 0.6029745742035839    4    4   14   14
 0.04139997967652358    5    1    5    1
 0.0345043766204871    5    1    5    2
 0.03579360454056379    5    1    5    3
 0.00444308575526428    5    1    8    1
 0.01392739685163934    5    1    8    2
 0.01553515588892967    5    1    8    3
 0.02313501587544095    5    1   10    4
 0.01159944354633081    5    1   10    7
 0.02313501587544094    5    1   11    6
 0.01159944354633081    5    1   11    9
 -0.0133570076433921    5    1   12    5
 -0.006696941853923962    5    1   12    8
 -0.02313501587544094    5    1   14    5
 -0.01159944354633082    5    1   14    8
 0.03450437662048711    5    2    5    1
 0.1308155577771058    5    2    5    2
 0.107186536861975    5    2    5    3
 0.005814050268906673    5    2    8    1
 0.05937209821149678    5    2    8    2
 0.07271455111467801    5    2    8    3
 0.08682308363371198    5    2   10    4
 0.05633316319428551    5    2   10    7
 0.08682308363371198    5    2   11    6
 0.0563331631942855    5    2   11    9
 -0.05012733070779696    5    2   12    5
 -0.03252396693452386    5    2   12    8
 -0.08682308363371194    5    2   14    5
 -0.0563331631942855    5    2   14    8
 0.03579360454056379    5    3    5    1
 0.107186536861975    5    3    5    2
 0.09306689032295654    5    3    5    3
 0.005361011230660176    5    3    8    1
 0.0518579507911862    5    3    8    2
 0.06829304569642654    5    3    8    3
 0.07487942152612952    5    3   10    4
 0.05175408410498666    5    3   10    7
 0.07487942152612952    5    3   11    6
 0.05175408410498665    5    3   11    9
 -0.04323165417487432    5    3   12    5
 -0.02988023438967658    5    3   12    8
 -0.0748794215261295    5    3   14    5
 -0.05175408410498665    5    3   14    8
 0.0440469154008697    5    4    5    4
 0.01752361466105608    5    4    7    5
 0.01752361466105608    5    4    8    4
 0.01494102229740511    5    4    8    7
 0.004645630723740186    5    4   10    1
 0.04131728246340906    5    4   10    2
 0.03701166127698272    5    4   10    3
 -0.02697352905071206    5    4   12   10
 0.0233597613876342    5    4   13   11
 1.021207104531527    5    5    1    1
 -0.2403467008916696    5    5    2    1
 0.7645295766909883    5    5    2    2
 0.1815339909722654    5    5    3    1
 0.4686995514866539    5    5    3    2
 0.5472590306161149    5    5    3    3
 0.7252830047251708    5    5    4    4
 0.8133768355269101    5    5    5    5
 0.7252830047251708    5    5    6    6
 0.3075667612099357    5    5    7    4
 0.393416248458987    5    5    7    7
 0.3426139905320479    5    5    8    5
 0.4232982930537973    5    5    8    8
 0.3075667612099357    5    5    9    6
 0.393416248458987    5    5    9    9
 0.602974574203584    5    5   10   10
 0.6029745742035839    5    5   11   11
 -0.002682156148906989    5    5   12    1
 -0.02385454415243304    5    5   12    2
 -0.02136869260142127    5    5   12    3
 0.5718282256867382    5    5   12   12
 0.5562550514283156    5    5   13   13
 -0.004645630723740191    5    5   14    1
 -0.04131728246340904    5    5   14    2
 -0.03701166127698274    5    5   14    3
 0.02697352905071207    5    5   14   12
 0.6029745742035839    5    5   14   14
 0.04139997967652358    6    1    6    1
 0.0345043766204871    6    1    6    2
 0.03579360454056379    6    1    6    3
 0.00444308575526428    6    1    9    1
 0.01392739685163934    6    1    9    2
 0.01553515588892967    6    1    9    3
 0.02313501587544094    6    1   11    5
 0.01159944354633081    6    1   11    8
 0.02671401528678419    6    1   12    6
 0.01339388370784792    6    1   12    9
 0.02313501587544094    6    1   13    4
 0.01159944354633081    6    1   13    7
 0.03450437662048711    6    2    6    1
 0.1308155577771058    6    2    6    2
 0.107186536861975    6    2    6    3
 0.005814050268906673    6    2    9    1
 0.05937209821149678    6    2    9    2
 0.07271455111467801    6    2    9    3
 0.08682308363371198    6    2   11    5
 0.05633316319428552    6    2   11    8
 0.1002546614155939    6    2   12    6
 0.0650479338690477    6    2   12    9
 0.08682308363371198    6    2   13    4
 0.05633316319428552    6    2   13    7
 0.03579360454056379    6    3    6    1
 0.107186536861975    6    3    6    2
 0.09306689032295654    6    3    6    3
 0.005361011230660176    6    3    9    1
 0.0518579507911862    6    3    9    2
 0.06829304569642654    6    3    9    3
 0.07487942152612952    6    3   11    5
 0.05175408410498666    6    3   11    8
 0.08646330834974866    6    3   12    6
 0.05976046877935315    6    3   12    9
 0.07487942152612952    6    3   13    4
 0.05175408410498666    6    3   13    7
 0.04404691540086969    6    4    6    4
 0.01752361466105608    6    4    7    6
 0.01752361466105608    6    4    9    4
 0.01494102229740511    6    4    9    7
 0.0233597613876342    6    4   11   10
 0.004645630723740186    6    4   13    1
 0.04131728246340906    6    4   13    2
 0.03701166127698272    6    4   13    3
 0.01348676452535602    6    4   13   12
 0.0233597613876342    6    4   14   13
 0.04404691540086969    6    5    6    5
 0.01752361466105608    6    5    8    6
 0.01752361466105608    6    5    9    5
 0.01494102229740511    6    5    9    8
 0.004645630723740186    6    5   11    1
 0.04131728246340906    6    5   11    2
 0.03701166127698272    6    5   11    3
 0.01348676452535602    6    5   12   11
 0.0233597613876342    6    5   13   10
 -0.0233597613876342    6    5   14   11
 1.021207104531527    6    6    1    1
 -0.2403467008916696    6    6    2    1
 0.7645295766909883    6    6    2    2
 0.1815339909722654    6    6    3    1
 0.4686995514866539    6    6    3    2
 0.5472590306161149    6    6    3    3
 0.7252830047251708    6    6    4    4
 0.7252830047251708    6    6    5    5
 0.8133768355269101    6    6    6    6
 0.3075667612099357    6    6    7    4
 0.393416248458987    6    6    7    7
 0.3075667612099357    6    6    8    5
 0.393416248458987    6    6    8    8
 0.3426139905320479    6    6    9    6
 0.4232982930537973    6    6    9    9
 0.5562550514283157    6    6   10   10
 0.6029745742035839    6    6   11   11
 0.005364312297813985    6    6   12    1
 0.04770908830486609    6    6   12    2
 0.04273738520284248    6    6   12    3
 0.6185477484620067    6    6   12   12
 0.6029745742035839    6    6   13   13
 0.5562550514283156    6    6   14   14
 0.004443085755264281    7    1    4    1
 0.005814050268906671    7    1    4    2
 0.005361011230660176    7    1    4    3
 0.0005268261919432335    7    1    7    1
 0.002386602779197135    7    1    7    2
 0.002750178356455602    7    1    7    3
 0.003761928222322095    7    1   10    5
 0.002079185998952281    7    1   10    8
 -0.002171950271829712    7    1   12    4
 -0.0012004185961904    7    1   12    7
 0.003761928222322095    7    1   13    6
 0.002079185998952281    7    1   13    9
 0.003761928222322096    7    1   14    4
 0.002079185998952281    7    1   14    7
 0.01392739685163934    7    2    4    1
 0.05937209821149678    7    2    4    2
 0.05185795079118621    7    2    4    3
 0.002386602779197135    7    2    7    1
 0.03081916354040956    7    2    7    2
 0.04289121179073309    7    2    7    3
 0.04330883446494    7    2   10    5
 0.0322733748329903    7    2   10    8
 -0.02500436723662205    7    2   12    4
 -0.01863304164748465    7    2   12    7
 0.04330883446494    7    2   13    6
 0.0322733748329903    7    2   13    9
 0.04330883446494002    7    2   14    4
 0.03227337483299031    7    2   14    7
 0.01553515588892967    7    3    4    1
 0.07271455111467801    7    3    4    2
 0.06829304569642652    7    3    4    3
 0.002750178356455602    7    3    7    1
 0.04289121179073309    7    3    7    2
 0.07224289710550377    7    3    7    3
 0.05738458848152145    7    3   10    5
 0.04993983730814841    7    3   10    8
 -0.03313100760714231    7    3   12    4
 -0.0288327785131456    7    3   12    7
 0.05738458848152145    7    3   13    6
 0.04993983730814841    7    3   13    9
 0.05738458848152145    7    3   14    4
 0.04993983730814841    7    3   14    7
 0.3632715881468526    7    4    1    1
 -0.08065138182290331    7    4    2    1
 0.3214969882772532    7    4    2    2
 0.06745096009229416    7    4    3    1
 0.2125635945252028    7    4    3    2
 0.256843028331716    7    4    3    3
 0.3426139905320479    7    4    4    4
 0.3075667612099358    7    4    5    5
 0.3075667612099358    7    4    6    6
 0.1601025229551821    7    4    7    4
 0.2193248987762371    7    4    7    7
 0.1415637928967355    7    4    8    5
 0.1972137391529097    7    4    8    8
 0.1415637928967355    7    4    9    6
 0.1972137391529098    7    4    9    9
 0.2866983747787814    7    4   10   10
 0.260202947906128    7    4   11   11
 -0.0008212436573135952    7    4   12    1
 -0.01175331906463431    7    4   12    2
 -0.01199194588558011    7    4   12    3
 0.2690347568636789    7    4   12   12
 0.2866983747787814    7    4   13   13
 0.001422435739860825    7    4   14    1
 0.0203573457775145    7    4   14    2
 0.0207706595554413    7    4   14    3
 -0.01529714183722047    7    4   14   12
 0.2866983747787813    7    4   14   14
 0.01752361466105608    7    5    5    4
 0.009269365029223335    7    5    7    5
 0.009269365029223335    7    5    8    4
 0.01105557981166367    7    5    8    7
 0.001422435739860824    7    5   10    1
 0.02035734577751451    7    5   10    2
 0.02077065955544129    7    5   10    3
 -0.01529714183722045    7    5   12   10
 0.01324771343632667    7    5   13   11
 0.01752361466105608    7    6    6    4
 0.009269365029223334    7    6    7    6
 0.009269365029223334    7    6    9    4
 0.01105557981166367    7    6    9    7
 0.01324771343632667    7    6   11   10
 0.001422435739860824    7    6   13    1
 0.02035734577751451    7    6   13    2
 0.02077065955544129    7    6   13    3
 0.007648570918610222    7    6   13   12
 0.01324771343632667    7    6   14   13
 0.414264731834729    7    7    1    1
 -0.08970544651089543    7    7    2    1
 0.4044865291204869    7    7    2    2
 0.07845205080520187    7    7    3    1
 0.2835999689440651    7    7    3    2
 0.3689764215072509    7    7    3    3
 0.4232982930537973    7    7    4    4
 0.393416248458987    7    7    5    5
 0.393416248458987    7    7    6    6
 0.2193248987762371    7    7    7    4
 0.3589158845615316    7    7    7    7
 0.1972137391529097    7    7    8    5
 0.3149670007376709    7    7    8    8
 0.1972137391529097    7    7    9    6
 0.3149670007376709    7    7    9    9
 0.3982853698053406    7    7   10   10
 0.3667478159901409    7    7   11   11
 -0.0005394270609799558    7    7   12    1
 -0.01190991077390183    7    7   12    2
 -0.01490716069657422    7    7   12    3
 0.3772603339285406    7    7   12   12
 0.3982853698053406    7    7   13   13
 0.0009343150765948431    7    7   14    1
 0.02062857057400988    7    7   14    2
 0.02581995972306037    7    7   14    3
 -0.01820821518478782    7    7   14   12
 0.3982853698053405    7    7   14   14
 0.004443085755264281    8    1    5    1
 0.005814050268906671    8    1    5    2
 0.005361011230660176    8    1    5    3
 0.0005268261919432335    8    1    8    1
 0.002386602779197135    8    1    8    2
 0.002750178356455602    8    1    8    3
 0.003761928222322095    8    1   10    4
 0.002079185998952281    8    1   10    7
 0.003761928222322095    8    1   11    6
 0.002079185998952281    8    1   11    9
 -0.002171950271829712    8    1   12    5
 -0.0012004185961904    8    1   12    8
 -0.003761928222322096    8    1   14    5
 -0.002079185998952281    8    1   14    8
 0.01392739685163934    8    2    5    1
 0.05937209821149678    8    2    5    2
 0.05185795079118621    8    2    5    3
 0.002386602779197135    8    2    8    1
 0.03081916354040956    8    2    8    2
 0.04289121179073309    8    2    8    3
 0.04330883446494    8    2   10    4
 0.0322733748329903    8    2   10    7
 0.04330883446494    8    2   11    6
 0.0322733748329903    8    2   11    9
 -0.02500436723662205    8    2   12    5
 -0.01863304164748465    8    2   12    8
 -0.04330883446494002    8    2   14    5
 -0.03227337483299031    8    2   14    8
 0.01553515588892967    8    3    5    1
 0.07271455111467801    8    3    5    2
 0.06829304569642652    8    3    5    3
 0.002750178356455602    8    3    8    1
 0.04289121179073309    8    3    8    2
 0.07224289710550377    8    3    8    3
 0.05738458848152145    8    3   10    4
 0.04993983730814841    8    3   10    7
 0.05738458848152145    8    3   11    6
 0.04993983730814841    8    3   11    9
 -0.03313100760714231    8    3   12    5
 -0.0288327785131456    8    3   12    8
 -0.05738458848152145    8    3   14    5
 -0.04993983730814841    8    3   14    8
 0.01752361466105608    8    4    5    4
 0.009269365029223335    8    4    7    5
 0.009269365029223335    8    4    8    4
 0.01105557981166367    8    4    8    7
 0.001422435739860824    8    4   10    1
 0.02035734577751451    8    4   10    2
 0.02077065955544129    8    4   10    3
 -0.01529714183722045    8    4   12   10
 0.01324771343632667    8    4   13   11
 0.3632715881468526    8    5    1    1
 -0.08065138182290331    8    5    2    1
 0.3214969882772532    8    5    2    2
 0.06745096009229416    8    5    3    1
 0.2125635945252028    8    5    3    2
 0.256843028331716    8    5    3    3
 0.3075667612099358    8    5    4    4
 0.3426139905320479    8    5    5    5
 0.3075667612099358    8    5    6    6
 0.1415637928967355    8    5    7    4
 0.1972137391529097    8    5    7    7
 0.1601025229551821    8    5    8    5
 0.2193248987762371    8    5    8    8
 0.1415637928967355    8    5    9    6
 0.1972137391529098    8    5    9    9
 0.2866983747787814    8    5   10   10
 0.2866983747787814    8    5   11   11
 -0.0008212436573135952    8    5   12    1
 -0.01175331906463431    8    5   12    2
 -0.01199194588558011    8    5   12    3
 0.2690347568636789    8    5   12   12
 0.260202947906128    8    5   13   13
 -0.001422435739860825    8    5   14    1
 -0.0203573457775145    8    5   14    2
 -0.0207706595554413    8    5   14    3
 0.01529714183722047    8    5   14   12
 0.2866983747787813    8    5   14   14
 0.01752361466105608    8    6    6    5
 0.009269365029223334    8    6    8    6
 0.009269365029223334    8    6    9    5
 0.01105557981166367    8    6    9    8
 0.001422435739860824    8    6   11    1
 0.02035734577751451    8    6   11    2
 0.02077065955544129    8    6   11    3
 0.007648570918610225    8    6   12   11
 0.01324771343632667    8    6   13   10
 -0.01324771343632667    8    6   14   11
 0.01494102229740511    8    7    5    4
 0.01105557981166367    8    7    7    5
 0.01105557981166367    8    7    8    4
 0.02197444191193038    8    7    8    7
 0.0009343150765948409    8    7   10    1
 0.02062857057400994    8    7   10    2
 0.02581995972306038    8    7   10    3
 -0.01820821518478786    8    7   12   10
 0.01576877690759986    8    7   13   11
 0.414264731834729    8    8    1    1
 -0.08970544651089543    8    8    2    1
 0.4044865291204869    8    8    2    2
 0.07845205080520187    8    8    3    1
 0.2835999689440651    8    8    3    2
 0.3689764215072509    8    8    3    3
 0.393416248458987    8    8    4    4
 0.4232982930537973    8    8    5    5
 0.393416248458987    8    8    6    6
 0.1972137391529097    8    8    7    4
 0.3149670007376709    8    8    7    7
 0.2193248987762371    8    8    8    5
 0.3589158845615316    8    8    8    8
 0.1972137391529097    8    8    9    6
 0.3149670007376709    8    8    9    9
 0.3982853698053406    8    8   10   10
 0.3982853698053406    8    8   11   11
 -0.0005394270609799558    8    8   12    1
 -0.01190991077390183    8    8   12    2
 -0.01490716069657422    8    8   12    3
 0.3772603339285406    8    8   12   12
 0.3667478159901409    8    8   13   13
 -0.0009343150765948431    8    8   14    1
 -0.02062857057400988    8    8   14    2
 -0.02581995972306037    8    8   14    3
 0.01820821518478782    8    8   14   12
 0.3982853698053405    8    8   14   14
 0.004443085755264281    9    1    6    1
 0.005814050268906671    9    1    6    2
 0.005361011230660176    9    1    6    3
 0.0005268261919432335    9    1    9    1
 0.002386602779197135    9    1    9    2
 0.002750178356455602    9    1    9    3
 0.003761928222322095    9    1   11    5
 0.002079185998952281    9    1   11    8
 0.004343900543659421    9    1   12    6
 0.002400837192380801    9    1   12    9
 0.003761928222322095    9    1   13    4
 0.002079185998952281    9    1   13    7
 0.01392739685163934    9    2    6    1
 0.05937209821149678    9    2    6    2
 0.05185795079118621    9    2    6    3
 0.002386602779197135    9    2    9    1
 0.03081916354040956    9    2    9    2
 0.04289121179073309    9    2    9    3
 0.04330883446494    9    2   11    5
 0.0322733748329903    9    2   11    8
 0.0500087344732441    9    2   12    6
 0.03726608329496929    9    2   12    9
 0.04330883446494    9    2   13    4
 0.0322733748329903    9    2   13    7
 0.01553515588892967    9    3    6    1
 0.07271455111467801    9    3    6    2
 0.06829304569642652    9    3    6    3
 0.002750178356455602    9    3    9    1
 0.04289121179073309    9    3    9    2
 0.07224289710550377    9    3    9    3
 0.05738458848152148    9    3   11    5
 0.04993983730814841    9    3   11    8
 0.06626201521428461    9    3   12    6
 0.05766555702629118    9    3   12    9
 0.05738458848152148    9    3   13    4
 0.04993983730814841    9    3   13    7
 0.01752361466105608    9    4    6    4
 0.009269365029223334    9    4    7    6
 0.009269365029223334    9    4    9    4
 0.01105557981166367    9    4    9    7
 0.01324771343632667    9    4   11   10
 0.001422435739860824    9    4   13    1
 0.02035734577751451    9    4   13    2
 0.02077065955544129    9    4   13    3
 0.007648570918610222    9    4   13   12
 0.01324771343632667    9    4   14   13
 0.01752361466105608    9    5    6    5
 0.009269365029223334    9    5    8    6
 0.009269365029223334    9    5    9    5
 0.01105557981166367    9    5    9    8
 0.001422435739860824    9    5   11    1
 0.02035734577751451    9    5   11    2
 0.02077065955544129    9    5   11    3
 0.007648570918610225    9    5   12   11
 0.01324771343632667    9    5   13   10
 -0.01324771343632667    9    5   14   11
 0.3632715881468526    9    6    1    1
 -0.08065138182290331    9    6    2    1
 0.3214969882772532    9    6    2    2
 0.06745096009229416    9    6    3    1
 0.2125635945252028    9    6    3    2
 0.256843028331716    9    6    3    3
 0.3075667612099357    9    6    4    4
 0.3075667612099357    9    6    5    5
 0.3426139905320478    9    6    6    6
 0.1415637928967355    9    6    7    4
 0.1972137391529097    9    6    7    7
 0.1415637928967355    9    6    8    5
 0.1972137391529097    9    6    8    8
 0.1601025229551821    9    6    9    6
 0.2193248987762371    9    6    9    9
 0.260202947906128    9    6   10   10
 0.2866983747787812    9    6   11   11
 0.00164248731462718    9    6   12    1
 0.02350663812926854    9    6   12    2
 0.0239838917711602    9    6   12    3
 0.2955301837363324    9    6   12   12
 0.2866983747787812    9    6   13   13
 0.260202947906128    9    6   14   14
 0.01494102229740511    9    7    6    4
 0.01105557981166367    9    7    7    6
 0.01105557981166367    9    7    9    4
 0.02197444191193038    9    7    9    7
 0.01576877690759986    9    7   11   10
 0.0009343150765948409    9    7   13    1
 0.02062857057400994    9    7   13    2
 0.02581995972306039    9    7   13    3
 0.009104107592393934    9    7   13   12
 0.01576877690759986    9    7   14   13
 0.01494102229740511    9    8    6    5
 0.01105557981166367    9    8    8    6
 0.01105557981166367    9    8    9    5
 0.02197444191193038    9    8    9    8
 0.0009343150765948409    9    8   11    1
 0.02062857057400994    9    8   11    2
 0.02581995972306039    9    8   11    3
 0.009104107592393933    9    8   12   11
 0.01576877690759986    9    8   13   10
 -0.01576877690759986    9    8   14   11
 0.414264731834729    9    9    1    1
 -0.08970544651089543    9    9    2    1
 0.4044865291204869    9    9    2    2
 0.07845205080520187    9    9    3    1
 0.2835999689440651    9    9    3    2
 0.3689764215072509    9    9    3    3
 0.393416248458987    9    9    4    4
 0.393416248458987    9    9    5    5
 0.4232982930537973    9    9    6    6
 0.1972137391529098    9    9    7    4
 0.3149670007376709    9    9    7    7
 0.1972137391529098    9    9    8    5
 0.3149670007376709    9    9    8    8
 0.2193248987762371    9    9    9    6
 0.3589158845615316    9    9    9    9
 0.3667478159901409    9    9   10   10
 0.3982853698053405    9    9   11   11
 0.001078854121959915    9    9   12    1
 0.02381982154780368    9    9   12    2
 0.02981432139314844    9    9   12    3
 0.4087978877437403    9    9   12   12
 0.3982853698053405    9    9   13   13
 0.3667478159901408    9    9   14   14
 0.004645630723740186   10    1    5    4
 0.001422435739860824   10    1    7    5
 0.001422435739860824   10    1    8    4
 0.0009343150765948409   10    1    8    7
 0.0006270638325858732   10    1   10    1
 0.003345083961634942   10    1   10    2
 0.002783091686720856   10    1   10    3
 -0.001935393646757746   10    1   12   10
 0.001676100064415214   10    1   13   11
 0.04131728246340906   10    2    5    4
 0.02035734577751451   10    2    7    5
 0.02035734577751451   10    2    8    4
 0.02062857057400994   10    2    8    7
 0.003345083961634943   10    2   10    1
 0.0470961723005195   10    2   10    2
 0.04509133089118859   10    2   10    3
 -0.03362673126924159   10    2   12   10
 0.02912160352539575   10    2   13   11
 0.03701166127698272   10    3    5    4
 0.02077065955544129   10    3    7    5
 0.02077065955544129   10    3    8    4
 0.02581995972306039   10    3    8    7
 0.002783091686720856   10    3   10    1
 0.04509133089118859   10    3   10    2
 0.04702378219722003   10    3   10    3
 -0.0347403227864125   10    3   12   10