 &FCI NORB=   5,NELEC= 1,MS2=1,
  ORBSYM=1,1,1,1,1,
  ISYM=1,
 &END
 0.8972518022547112    1    1    1    1
 0.5046992833253477    1    1    2    1
 0.5073648772722146    1    1    2    2
 0.7750370389423151    1    1    3    3
 0.7750370389423151    1    1    4    4
 0.7750370389423151    1    1    5    5
 0.5046992833253477    2    1    1    1
 0.3000159499634744    2    1    2    1
 0.3240224592888291    2    1    2    2
 0.4620819348512403    2    1    3    3
 0.4620819348512403    2    1    4    4
 0.4620819348512403    2    1    5    5
 0.5073648772722147    2    2    1    1
 0.3240224592888291    2    2    2    1
 0.3941258992475499    2    2    2    2
 0.4910730839055906    2    2    3    3
 0.4910730839055906    2    2    4    4
 0.4910730839055906    2    2    5    5
 0.1526080826029482    3    1    3    1
 0.1013539444951886    3    1    3    2
 0.1013539444951886    3    2    3    1
 0.0724615552427057    3    2    3    2
 0.7750370389423153    3    3    1    1
 0.4620819348512404    3    3    2    1
 0.4910730839055907    3    3    2    2
 0.7857187089967245    3    3    3    3
 0.6895082548338608    3    3    4    4
 0.6895082548338608    3    3    5    5
 0.1526080826029482    4    1    4    1
 0.1013539444951886    4    1    4    2
 0.1013539444951886    4    2    4    1
 0.0724615552427057    4    2    4    2
 0.04810522708143181    4    3    4    3
 0.7750370389423153    4    4    1    1
 0.4620819348512404    4    4    2    1
 0.4910730839055907    4    4    2    2
 0.6895082548338608    4    4    3    3
 0.7857187089967245    4    4    4    4
 0.6895082548338608    4    4    5    5
 0.1526080826029482    5    1    5    1
 0.1013539444951886    5    1    5    2
 0.1013539444951886    5    2    5    1
 0.0724615552427057    5    2    5    2
 0.04810522708143181    5    3    5    3
 0.04810522708143181    5    4    5    4
 0.7750370389423153    5    5    1    1
 0.4620819348512404    5    5    2    1
 0.4910730839055907    5    5    2    2
 0.6895082548338608    5    5    3    3
 0.6895082548338608    5    5    4    4
 0.7857187089967244    5    5    5    5
 -0.4084045575768551    1    1  0  0
 -0.4484730746158583    2    1  0  0
 -0.374378191998377    2    2  0  0
 0.9104191392053496    3    3  0  0
 0.9104191392053496    4    4  0  0
 0.9104191392053496    5    5  0  0
 5e-201  0  0  0  0
